
Host: gpu02

Timers On : Thu Dec 18 14:18:18 2025
Timers Off: Thu Dec 18 14:18:27 2025

Wall Time:        9.20 seconds

                                                       Time (seconds)
Module                                       User      System        Wall        Calls

--------------------------------------------------------------------------------------

**************************************************************************************

Host: gpu02

Timers On : Thu Dec 18 14:21:15 2025
Timers Off: Thu Dec 18 14:21:16 2025

Wall Time:        0.53 seconds

                                                       Time (seconds)
Module                                       User      System        Wall        Calls

--------------------------------------------------------------------------------------

**************************************************************************************

Host: gpu02

Timers On : Thu Dec 18 14:35:11 2025
Timers Off: Thu Dec 18 14:35:14 2025

Wall Time:        3.02 seconds

                                                       Time (seconds)
Module                                       User      System        Wall        Calls

--------------------------------------------------------------------------------------

**************************************************************************************

Host: gpu02

Timers On : Thu Dec 18 14:55:01 2025
Timers Off: Thu Dec 18 14:55:02 2025

Wall Time:        0.86 seconds

                                                       Time (seconds)
Module                                       User      System        Wall        Calls

--------------------------------------------------------------------------------------

**************************************************************************************

Host: gpu02

Timers On : Thu Dec 18 14:56:29 2025
Timers Off: Thu Dec 18 14:56:30 2025

Wall Time:        0.55 seconds

                                                       Time (seconds)
Module                                       User      System        Wall        Calls

--------------------------------------------------------------------------------------

**************************************************************************************

Host: gpu02

Timers On : Thu Dec 18 15:05:04 2025
Timers Off: Thu Dec 18 15:05:06 2025

Wall Time:        1.53 seconds

                                                       Time (seconds)
Module                                       User      System        Wall        Calls

--------------------------------------------------------------------------------------

**************************************************************************************

Host: gpu02

Timers On : Thu Dec 18 15:07:23 2025
Timers Off: Thu Dec 18 15:07:24 2025

Wall Time:        1.44 seconds

                                                       Time (seconds)
Module                                       User      System        Wall        Calls

--------------------------------------------------------------------------------------

**************************************************************************************

Host: gpu02

Timers On : Thu Dec 18 15:36:43 2025
Timers Off: Thu Dec 18 15:36:44 2025

Wall Time:        0.73 seconds

                                                       Time (seconds)
Module                                       User      System        Wall        Calls

--------------------------------------------------------------------------------------

**************************************************************************************

Host: gpu02

Timers On : Thu Dec 18 15:39:11 2025
Timers Off: Thu Dec 18 15:39:13 2025

Wall Time:        1.78 seconds

                                                       Time (seconds)
Module                                       User      System        Wall        Calls

--------------------------------------------------------------------------------------

**************************************************************************************

Host: gpu02

Timers On : Thu Dec 18 15:44:17 2025
Timers Off: Thu Dec 18 15:44:18 2025

Wall Time:        1.11 seconds

                                                       Time (seconds)
Module                                       User      System        Wall        Calls

--------------------------------------------------------------------------------------

**************************************************************************************

Host: gpu02

Timers On : Thu Dec 18 15:45:17 2025
Timers Off: Thu Dec 18 15:45:19 2025

Wall Time:        1.32 seconds

                                                       Time (seconds)
Module                                       User      System        Wall        Calls

--------------------------------------------------------------------------------------

**************************************************************************************

Host: gpu02

Timers On : Thu Dec 18 15:47:52 2025
Timers Off: Thu Dec 18 15:47:54 2025

Wall Time:        2.41 seconds

                                                       Time (seconds)
Module                                       User      System        Wall        Calls

--------------------------------------------------------------------------------------

**************************************************************************************

Host: gpu02

Timers On : Thu Dec 18 15:50:43 2025
Timers Off: Thu Dec 18 15:50:44 2025

Wall Time:        1.02 seconds

                                                       Time (seconds)
Module                                       User      System        Wall        Calls

--------------------------------------------------------------------------------------

**************************************************************************************

Host: gpu02

Timers On : Thu Dec 18 16:46:04 2025
Timers Off: Thu Dec 18 16:46:05 2025

Wall Time:        1.02 seconds

                                                       Time (seconds)
Module                                       User      System        Wall        Calls

--------------------------------------------------------------------------------------

**************************************************************************************

Host: gpu02

Timers On : Thu Dec 18 16:46:43 2025
Timers Off: Thu Dec 18 16:46:44 2025

Wall Time:        0.86 seconds

                                                       Time (seconds)
Module                                       User      System        Wall        Calls

--------------------------------------------------------------------------------------

**************************************************************************************

Host: gpu02

Timers On : Thu Dec 18 16:46:58 2025
Timers Off: Thu Dec 18 16:47:00 2025

Wall Time:        1.79 seconds

                                                       Time (seconds)
Module                                       User      System        Wall        Calls

--------------------------------------------------------------------------------------

**************************************************************************************

Host: gpu02

Timers On : Thu Dec 18 17:24:20 2025
Timers Off: Thu Dec 18 17:24:21 2025

Wall Time:        1.08 seconds

                                                       Time (seconds)
Module                                       User      System        Wall        Calls

--------------------------------------------------------------------------------------

**************************************************************************************

Host: gpu02

Timers On : Thu Dec 18 17:25:59 2025
Timers Off: Thu Dec 18 17:26:00 2025

Wall Time:        0.47 seconds

                                                       Time (seconds)
Module                                       User      System        Wall        Calls

--------------------------------------------------------------------------------------

**************************************************************************************

Host: gpu02

Timers On : Thu Dec 18 17:33:57 2025
Timers Off: Thu Dec 18 17:34:01 2025

Wall Time:        3.87 seconds

                                                       Time (seconds)
Module                                       User      System        Wall        Calls

--------------------------------------------------------------------------------------

**************************************************************************************

Host: gpu02

Timers On : Thu Dec 18 17:37:42 2025
Timers Off: Thu Dec 18 17:37:45 2025

Wall Time:        2.88 seconds

                                                       Time (seconds)
Module                                       User      System        Wall        Calls

--------------------------------------------------------------------------------------

**************************************************************************************

Host: gpu02

Timers On : Thu Dec 18 17:39:25 2025
Timers Off: Thu Dec 18 17:39:26 2025

Wall Time:        1.91 seconds

                                                       Time (seconds)
Module                                       User      System        Wall        Calls

--------------------------------------------------------------------------------------

**************************************************************************************

Host: gpu02

Timers On : Thu Dec 18 17:40:16 2025
Timers Off: Thu Dec 18 17:40:18 2025

Wall Time:        1.54 seconds

                                                       Time (seconds)
Module                                       User      System        Wall        Calls

--------------------------------------------------------------------------------------

**************************************************************************************

Host: gpu02

Timers On : Thu Dec 18 17:42:12 2025
Timers Off: Thu Dec 18 17:42:15 2025

Wall Time:        2.74 seconds

                                                       Time (seconds)
Module                                       User      System        Wall        Calls

--------------------------------------------------------------------------------------

**************************************************************************************

Host: gpu02

Timers On : Thu Dec 18 17:45:36 2025
Timers Off: Thu Dec 18 17:45:39 2025

Wall Time:        3.22 seconds

                                                       Time (seconds)
Module                                       User      System        Wall        Calls

--------------------------------------------------------------------------------------

**************************************************************************************

Host: gpu02

Timers On : Thu Dec 18 17:51:02 2025
Timers Off: Thu Dec 18 17:51:03 2025

Wall Time:        1.18 seconds

                                                       Time (seconds)
Module                                       User      System        Wall        Calls

--------------------------------------------------------------------------------------

**************************************************************************************

Host: gpu02

Timers On : Thu Dec 18 17:54:08 2025
Timers Off: Thu Dec 18 17:54:11 2025

Wall Time:        3.09 seconds

                                                       Time (seconds)
Module                                       User      System        Wall        Calls

--------------------------------------------------------------------------------------

**************************************************************************************

Host: gpu02

Timers On : Thu Dec 18 17:59:18 2025
Timers Off: Thu Dec 18 17:59:20 2025

Wall Time:        2.25 seconds

                                                       Time (seconds)
Module                                       User      System        Wall        Calls

--------------------------------------------------------------------------------------

**************************************************************************************

Host: gpu02

Timers On : Thu Dec 18 18:02:04 2025
Timers Off: Thu Dec 18 18:02:06 2025

Wall Time:        1.75 seconds

                                                       Time (seconds)
Module                                       User      System        Wall        Calls

--------------------------------------------------------------------------------------

**************************************************************************************

Host: gpu02

Timers On : Thu Dec 18 18:05:02 2025
Timers Off: Thu Dec 18 18:05:05 2025

Wall Time:        3.03 seconds

                                                       Time (seconds)
Module                                       User      System        Wall        Calls

--------------------------------------------------------------------------------------

**************************************************************************************

Host: gpu02

Timers On : Thu Dec 18 18:14:03 2025
Timers Off: Thu Dec 18 18:14:05 2025

Wall Time:        1.71 seconds

                                                       Time (seconds)
Module                                       User      System        Wall        Calls

--------------------------------------------------------------------------------------

**************************************************************************************

Host: gpu02

Timers On : Thu Dec 18 18:15:20 2025
Timers Off: Thu Dec 18 18:15:20 2025

Wall Time:        0.50 seconds

                                                       Time (seconds)
Module                                       User      System        Wall        Calls

--------------------------------------------------------------------------------------

**************************************************************************************

Host: gpu02

Timers On : Thu Dec 18 18:18:43 2025
Timers Off: Thu Dec 18 18:18:45 2025

Wall Time:        2.41 seconds

                                                       Time (seconds)
Module                                       User      System        Wall        Calls

--------------------------------------------------------------------------------------

**************************************************************************************

Host: gpu02

Timers On : Thu Dec 18 18:20:24 2025
Timers Off: Thu Dec 18 18:20:26 2025

Wall Time:        1.65 seconds

                                                       Time (seconds)
Module                                       User      System        Wall        Calls

--------------------------------------------------------------------------------------

**************************************************************************************

Host: gpu02

Timers On : Thu Dec 18 18:20:59 2025
Timers Off: Thu Dec 18 18:21:01 2025

Wall Time:        2.32 seconds

                                                       Time (seconds)
Module                                       User      System        Wall        Calls

--------------------------------------------------------------------------------------

**************************************************************************************

Host: gpu02

Timers On : Thu Dec 18 18:22:06 2025
Timers Off: Thu Dec 18 18:22:07 2025

Wall Time:        1.51 seconds

                                                       Time (seconds)
Module                                       User      System        Wall        Calls

--------------------------------------------------------------------------------------

**************************************************************************************

Host: gpu02

Timers On : Thu Dec 18 18:32:14 2025
Timers Off: Thu Dec 18 18:32:16 2025

Wall Time:        2.03 seconds

                                                       Time (seconds)
Module                                       User      System        Wall        Calls

--------------------------------------------------------------------------------------

**************************************************************************************

Host: gpu02

Timers On : Thu Dec 18 18:36:11 2025
Timers Off: Thu Dec 18 18:36:14 2025

Wall Time:        3.18 seconds

                                                       Time (seconds)
Module                                       User      System        Wall        Calls

--------------------------------------------------------------------------------------

**************************************************************************************

Host: gpu02

Timers On : Thu Dec 18 18:38:49 2025
Timers Off: Thu Dec 18 18:38:52 2025

Wall Time:        2.18 seconds

                                                       Time (seconds)
Module                                       User      System        Wall        Calls

--------------------------------------------------------------------------------------

**************************************************************************************

Host: gpu02

Timers On : Thu Dec 18 18:47:59 2025
Timers Off: Thu Dec 18 18:48:01 2025

Wall Time:        1.93 seconds

                                                       Time (seconds)
Module                                       User      System        Wall        Calls

--------------------------------------------------------------------------------------

**************************************************************************************

Host: gpu02

Timers On : Thu Dec 18 19:01:18 2025
Timers Off: Thu Dec 18 19:01:20 2025

Wall Time:        2.75 seconds

                                                       Time (seconds)
Module                                       User      System        Wall        Calls

--------------------------------------------------------------------------------------

**************************************************************************************

Host: gpu02

Timers On : Thu Dec 18 19:11:06 2025
Timers Off: Thu Dec 18 19:11:09 2025

Wall Time:        2.60 seconds

                                                       Time (seconds)
Module                                       User      System        Wall        Calls

--------------------------------------------------------------------------------------

**************************************************************************************

Host: gpu02

Timers On : Thu Dec 18 19:16:28 2025
Timers Off: Thu Dec 18 19:16:31 2025

Wall Time:        2.72 seconds

                                                       Time (seconds)
Module                                       User      System        Wall        Calls

--------------------------------------------------------------------------------------

**************************************************************************************

Host: gpu03

Timers On : Thu Dec 18 17:12:28 2025
Timers Off: Fri Dec 19 02:10:57 2025

Wall Time:    32308.60 seconds

                                                       Time (seconds)
Module                                       User      System        Wall        Calls

--------------------------------------------------------------------------------------

**************************************************************************************
